<VTKFile type="UnstructuredGrid" version="1.0" byte_order="LittleEndian" header_type="UInt64">
  <UnstructuredGrid>
    <Piece NumberOfPoints="64" NumberOfCells="27">
      <PointData Scalars="vertices_field" Vectors="displacement">
        <DataArray type="Float64" Name="vertices_field" format="ascii" RangeMin="0" RangeMax="63">
          0 1 2 3 4 5
          6 7 8 9 10 11
          12 13 14 15 16 17
          18 19 20 21 22 23
          24 25 26 27 28 29
          30 31 32 33 34 35
          36 37 38 39 40 41
          42 43 44 45 46 47
          48 49 50 51 52 53
          54 55 56 57 58 59
          60 61 62 63
        </DataArray>
        <DataArray type="Float64" Name="displacement" NumberOfComponents="3" format="ascii" RangeMin="0" RangeMax="235.7244153667583">
          0 0 0 1 2 3
          2 4 6 3 6 9
          4 8 12 5 10 15
          6 12 18 7 14 21
          8 16 24 9 18 27
          10 20 30 11 22 33
          12 24 36 13 26 39
          14 28 42 15 30 45
          16 32 48 17 34 51
          18 36 54 19 38 57
          20 40 60 21 42 63
          22 44 66 23 46 69
          24 48 72 25 50 75
          26 52 78 27 54 81
          28 56 84 29 58 87
          30 60 90 31 62 93
          32 64 96 33 66 99
          34 68 102 35 70 105
          36 72 108 37 74 111
          38 76 114 39 78 117
          40 80 120 41 82 123
          42 84 126 43 86 129
          44 88 132 45 90 135
          46 92 138 47 94 141
          48 96 144 49 98 147
          50 100 150 51 102 153
          52 104 156 53 106 159
          54 108 162 55 110 165
          56 112 168 57 114 171
          58 116 174 59 118 177
          60 120 180 61 122 183
          62 124 186 63 126 189
          <InformationKey name="L2_NORM_RANGE" location="vtkDataArray" length="2">
            <Value index="0">
              0
            </Value>
            <Value index="1">
              235.72441537
            </Value>
          </InformationKey>
        </DataArray>
      </PointData>
      <CellData Scalars="Scalar_test_field" Vectors="ComplexVector3d_test_field.re" Tensors="ComplexSymmetricTensor3d_test_field.re">
        <DataArray type="Float64" Name="Scalar_test_field" format="ascii" RangeMin="0" RangeMax="26">
          0 1 2 3 4 5
          6 7 8 9 10 11
          12 13 14 15 16 17
          18 19 20 21 22 23
          24 25 26
        </DataArray>
        <DataArray type="Float64" Name="ComplexVector3d_test_field.re" NumberOfComponents="3" format="ascii" RangeMin="0" RangeMax="97.28309205612247">
          0 0 0 1 2 3
          2 4 6 3 6 9
          4 8 12 5 10 15
          6 12 18 7 14 21
          8 16 24 9 18 27
          10 20 30 11 22 33
          12 24 36 13 26 39
          14 28 42 15 30 45
          16 32 48 17 34 51
          18 36 54 19 38 57
          20 40 60 21 42 63
          22 44 66 23 46 69
          24 48 72 25 50 75
          26 52 78
          <InformationKey name="L2_NORM_RANGE" location="vtkDataArray" length="2">
            <Value index="0">
              0
            </Value>
            <Value index="1">
              97.283092056
            </Value>
          </InformationKey>
        </DataArray>
        <DataArray type="Float64" Name="ComplexSymmetricTensor3d_test_field.re" NumberOfComponents="6" ComponentName0="XX" ComponentName1="YY" ComponentName2="ZZ" ComponentName3="XY" ComponentName4="YZ" ComponentName5="XZ" format="ascii" RangeMin="0" RangeMax="248.02419236840586">
          0 0 0 0 0 0
          1 2 3 4 5 6
          2 4 6 8 10 12
          3 6 9 12 15 18
          4 8 12 16 20 24
          5 10 15 20 25 30
          6 12 18 24 30 36
          7 14 21 28 35 42
          8 16 24 32 40 48
          9 18 27 36 45 54
          10 20 30 40 50 60
          11 22 33 44 55 66
          12 24 36 48 60 72
          13 26 39 52 65 78
          14 28 42 56 70 84
          15 30 45 60 75 90
          16 32 48 64 80 96
          17 34 51 68 85 102
          18 36 54 72 90 108
          19 38 57 76 95 114
          20 40 60 80 100 120
          21 42 63 84 105 126
          22 44 66 88 110 132
          23 46 69 92 115 138
          24 48 72 96 120 144
          25 50 75 100 125 150
          26 52 78 104 130 156
          <InformationKey name="L2_NORM_RANGE" location="vtkDataArray" length="2">
            <Value index="0">
              0
            </Value>
            <Value index="1">
              248.02419237
            </Value>
          </InformationKey>
        </DataArray>
        <DataArray type="Float64" Name="ComplexSymmetricTensor3d_test_field.im" NumberOfComponents="6" ComponentName0="XX" ComponentName1="YY" ComponentName2="ZZ" ComponentName3="XY" ComponentName4="YZ" ComponentName5="XZ" format="ascii" RangeMin="2.449489742783178" RangeMax="250.22789612671087">
          1 1 1 1 1 1
          2 3 4 5 6 7
          3 5 7 9 11 13
          4 7 10 13 16 19
          5 9 13 17 21 25
          6 11 16 21 26 31
          7 13 19 25 31 37
          8 15 22 29 36 43
          9 17 25 33 41 49
          10 19 28 37 46 55
          11 21 31 41 51 61
          12 23 34 45 56 67
          13 25 37 49 61 73
          14 27 40 53 66 79
          15 29 43 57 71 85
          16 31 46 61 76 91
          17 33 49 65 81 97
          18 35 52 69 86 103
          19 37 55 73 91 109
          20 39 58 77 96 115
          21 41 61 81 101 121
          22 43 64 85 106 127
          23 45 67 89 111 133
          24 47 70 93 116 139
          25 49 73 97 121 145
          26 51 76 101 126 151
          27 53 79 105 131 157
          <InformationKey name="L2_NORM_RANGE" location="vtkDataArray" length="2">
            <Value index="0">
              2.4494897428
            </Value>
            <Value index="1">
              250.22789613
            </Value>
          </InformationKey>
        </DataArray>
        <DataArray type="Float64" Name="ComplexVector3d_test_field.im" NumberOfComponents="3" format="ascii" RangeMin="1.7320508075688772" RangeMax="98.88882646689666">
          1 1 1 2 3 4
          3 5 7 4 7 10
          5 9 13 6 11 16
          7 13 19 8 15 22
          9 17 25 10 19 28
          11 21 31 12 23 34
          13 25 37 14 27 40
          15 29 43 16 31 46
          17 33 49 18 35 52
          19 37 55 20 39 58
          21 41 61 22 43 64
          23 45 67 24 47 70
          25 49 73 26 51 76
          27 53 79
          <InformationKey name="L2_NORM_RANGE" location="vtkDataArray" length="2">
            <Value index="0">
              1.7320508076
            </Value>
            <Value index="1">
              98.888826467
            </Value>
          </InformationKey>
        </DataArray>
        <DataArray type="Float64" Name="SymmetricTensor3d_test_field" NumberOfComponents="6" ComponentName0="XX" ComponentName1="YY" ComponentName2="ZZ" ComponentName3="XY" ComponentName4="YZ" ComponentName5="XZ" format="ascii" RangeMin="0" RangeMax="248.02419236840586">
          0 0 0 0 0 0
          1 2 3 4 5 6
          2 4 6 8 10 12
          3 6 9 12 15 18
          4 8 12 16 20 24
          5 10 15 20 25 30
          6 12 18 24 30 36
          7 14 21 28 35 42
          8 16 24 32 40 48
          9 18 27 36 45 54
          10 20 30 40 50 60
          11 22 33 44 55 66
          12 24 36 48 60 72
          13 26 39 52 65 78
          14 28 42 56 70 84
          15 30 45 60 75 90
          16 32 48 64 80 96
          17 34 51 68 85 102
          18 36 54 72 90 108
          19 38 57 76 95 114
          20 40 60 80 100 120
          21 42 63 84 105 126
          22 44 66 88 110 132
          23 46 69 92 115 138
          24 48 72 96 120 144
          25 50 75 100 125 150
          26 52 78 104 130 156
          <InformationKey name="L2_NORM_RANGE" location="vtkDataArray" length="2">
            <Value index="0">
              0
            </Value>
            <Value index="1">
              248.02419237
            </Value>
          </InformationKey>
        </DataArray>
        <DataArray type="Float64" Name="Vector3d_test_field" NumberOfComponents="3" format="ascii" RangeMin="0" RangeMax="97.28309205612247">
          0 0 0 1 2 3
          2 4 6 3 6 9
          4 8 12 5 10 15
          6 12 18 7 14 21
          8 16 24 9 18 27
          10 20 30 11 22 33
          12 24 36 13 26 39
          14 28 42 15 30 45
          16 32 48 17 34 51
          18 36 54 19 38 57
          20 40 60 21 42 63
          22 44 66 23 46 69
          24 48 72 25 50 75
          26 52 78
          <InformationKey name="L2_NORM_RANGE" location="vtkDataArray" length="2">
            <Value index="0">
              0
            </Value>
            <Value index="1">
              97.283092056
            </Value>
          </InformationKey>
        </DataArray>
        <DataArray type="Float64" Name="cell_field" format="ascii" RangeMin="0" RangeMax="26">
          0 1 2 3 4 5
          6 7 8 9 10 11
          12 13 14 15 16 17
          18 19 20 21 22 23
          24 25 26
        </DataArray>
      </CellData>
      <Points>
        <DataArray type="Float64" Name="Points" NumberOfComponents="3" format="ascii" RangeMin="0" RangeMax="5.196152422706632">
          0 0 0 1 0 0
          2 0 0 3 0 0
          0 1 0 1 1 0
          2 1 0 3 1 0
          0 2 0 1 2 0
          2 2 0 3 2 0
          0 3 0 1 3 0
          2 3 0 3 3 0
          0 0 1 1 0 1
          2 0 1 3 0 1
          0 1 1 1 1 1
          2 1 1 3 1 1
          0 2 1 1 2 1
          2 2 1 3 2 1
          0 3 1 1 3 1
          2 3 1 3 3 1
          0 0 2 1 0 2
          2 0 2 3 0 2
          0 1 2 1 1 2
          2 1 2 3 1 2
          0 2 2 1 2 2
          2 2 2 3 2 2
          0 3 2 1 3 2
          2 3 2 3 3 2
          0 0 3 1 0 3
          2 0 3 3 0 3
          0 1 3 1 1 3
          2 1 3 3 1 3
          0 2 3 1 2 3
          2 2 3 3 2 3
          0 3 3 1 3 3
          2 3 3 3 3 3
          <InformationKey name="L2_NORM_FINITE_RANGE" location="vtkDataArray" length="2">
            <Value index="0">
              0
            </Value>
            <Value index="1">
              5.1961524227
            </Value>
          </InformationKey>
          <InformationKey name="L2_NORM_RANGE" location="vtkDataArray" length="2">
            <Value index="0">
              0
            </Value>
            <Value index="1">
              5.1961524227
            </Value>
          </InformationKey>
        </DataArray>
      </Points>
      <Cells>
        <DataArray type="Int64" Name="connectivity" format="ascii" RangeMin="0" RangeMax="63">
          0 1 5 4 16 17
          21 20 1 2 6 5
          17 18 22 21 2 3
          7 6 18 19 23 22
          4 5 9 8 20 21
          25 24 5 6 10 9
          21 22 26 25 6 7
          11 10 22 23 27 26
          8 9 13 12 24 25
          29 28 9 10 14 13
          25 26 30 29 10 11
          15 14 26 27 31 30
          16 17 21 20 32 33
          37 36 17 18 22 21
          33 34 38 37 18 19
          23 22 34 35 39 38
          20 21 25 24 36 37
          41 40 21 22 26 25
          37 38 42 41 22 23
          27 26 38 39 43 42
          24 25 29 28 40 41
          45 44 25 26 30 29
          41 42 46 45 26 27
          31 30 42 43 47 46
          32 33 37 36 48 49
          53 52 33 34 38 37
          49 50 54 53 34 35
          39 38 50 51 55 54
          36 37 41 40 52 53
          57 56 37 38 42 41
          53 54 58 57 38 39
          43 42 54 55 59 58
          40 41 45 44 56 57
          61 60 41 42 46 45
          57 58 62 61 42 43
          47 46 58 59 63 62
        </DataArray>
        <DataArray type="Int64" Name="offsets" format="ascii" RangeMin="8" RangeMax="216">
          8 16 24 32 40 48
          56 64 72 80 88 96
          104 112 120 128 136 144
          152 160 168 176 184 192
          200 208 216
        </DataArray>
        <DataArray type="UInt8" Name="types" format="ascii" RangeMin="12" RangeMax="12">
          12 12 12 12 12 12
          12 12 12 12 12 12
          12 12 12 12 12 12
          12 12 12 12 12 12
          12 12 12
        </DataArray>
      </Cells>
    </Piece>
  </UnstructuredGrid>
</VTKFile>
